 *******************************************************************************
 ** Site#: 27415        For non-commercial use only    Version 17.143L 64BITS **
 *******************************************************************************
 ** Cite this program as: MOPAC2016, Version: 17.143L, James J. P. Stewart,   **
 ** Stewart Computational Chemistry, web: HTTP://OpenMOPAC.net. Days left: 343**
 *******************************************************************************
 **                                                                           **
 **                                MOPAC2016                                  **
 **                                                                           **
 *******************************************************************************

                              PM6 CALCULATION RESULTS


 *******************************************************************************
 *  CALCULATION DONE:                                Wed Jun 14 15:38:41 2017  *
 *  PM6        - The PM6 Hamiltonian to be used
 *  EPS= 80.10 - USE ANDREAS KLAMT'S COSMO IMPLICIT SOLVATION MODEL
 *  NOANCI     - DO NOT USE ANALYTICAL C.I. DERIVATIVES
 *  1SCF       - DO 1 SCF AND THEN STOP 
 *  T=         - A TIME OF 172800.0 SECONDS REQUESTED
 *  DUMP=N     - RESTART FILE WRITTEN EVERY  7200.000 SECONDS
 *  RELSCF     - DEFAULT SCF CRITERION MULTIPLIED BY***
 *              (DEFAULT SCFCRT= 0.00010)
 *  AUX        - OUTPUT AUXILIARY INFORMATION
 *  GRADIENTS  - ALL GRADIENTS TO BE PRINTED
 *******************************************************************************
PM6 NOANCI 1SCF GRADIENTS EPS=80.1 AUX(0,PRECISION=9) RELSCF=0.0001
 Title: ASE job

   ATOM   CHEMICAL          X               Y               Z
  NUMBER   SYMBOL      (ANGSTROMS)     (ANGSTROMS)     (ANGSTROMS)
 
     1       N         16.34991000  *  13.30014000  *   8.35646000  *
     2       H         15.60080000  *  12.73065000  *   8.80726000  *
     3       H         16.92289000  *  13.58701000  *   9.17132000  *
     4       H         15.60649000  *  14.12087000  *   7.18994000  *
     5       C         17.19352000  *  12.38243000  *   7.50573000  *
     6       H         17.96097000  *  13.02929000  *   7.00387000  *
     7       C         17.87209000  *  11.17907000  *   8.14784000  *
     8       H         18.61615000  *  11.43581000  *   8.90893000  *
     9       H         17.15236000  *  10.48099000  *   8.60624000  *
    10       H         18.40718000  *  10.58274000  *   7.38557000  *
    11       C         16.12790000  *  11.85317000  *   6.52832000  *
    12       O         14.99177000  *  11.67367000  *   6.97465000  *
    13       N         16.48138000  *  11.75889000  *   5.21571000  *
    14       H         17.44990000  *  11.86195000  *   4.91356000  *
    15       C         15.53184000  *  11.43797000  *   4.12580000  *
    16       H         15.62206000  *  12.25943000  *   3.35412000  *
    17       C         15.88256000  *  10.09307000  *   3.47550000  *
    18       H         15.76395000  *   9.27836000  *   4.21917000  *
    19       H         15.11141000  *   9.86791000  *   2.70853000  *
    20       C         17.29421000  *  10.06753000  *   2.85253000  *
    21       H         18.04246000  *  10.28913000  *   3.65416000  *
    22       C         17.44622000  *  11.11714000  *   1.74490000  *
    23       H         18.48711000  *  11.20199000  *   1.41531000  *
    24       H         16.84792000  *  10.85548000  *   0.86271000  *
    25       H         17.11605000  *  12.10996000  *   2.06807000  *
    26       C         17.59625000  *   8.66614000  *   2.30981000  *
    27       H         18.58081000  *   8.62487000  *   1.83176000  *
    28       H         17.58113000  *   7.91337000  *   3.10588000  *
    29       H         16.85888000  *   8.35520000  *   1.55972000  *
    30       C         14.04775000  *  11.50747000  *   4.58963000  *
    31       O         13.33672000  *  10.50798000  *   4.51085000  *
    32       O         13.64277000  *  12.70960000  *   4.87216000  *
    33       O         15.23990000  *  14.29288000  *   6.05485000  *
    34       H         14.90314000  *  15.14285000  *   5.67218000  *
    35       H         14.44935000  *  13.57946000  *   5.52613000  *
 


          CARTESIAN COORDINATES 

    NO.       ATOM         X         Y         Z

     1         N       16.3499   13.3001    8.3565
     2         H       15.6008   12.7307    8.8073
     3         H       16.9229   13.5870    9.1713
     4         H       15.6065   14.1209    7.1899
     5         C       17.1935   12.3824    7.5057
     6         H       17.9610   13.0293    7.0039
     7         C       17.8721   11.1791    8.1478
     8         H       18.6162   11.4358    8.9089
     9         H       17.1524   10.4810    8.6062
    10         H       18.4072   10.5827    7.3856
    11         C       16.1279   11.8532    6.5283
    12         O       14.9918   11.6737    6.9747
    13         N       16.4814   11.7589    5.2157
    14         H       17.4499   11.8620    4.9136
    15         C       15.5318   11.4380    4.1258
    16         H       15.6221   12.2594    3.3541
    17         C       15.8826   10.0931    3.4755
    18         H       15.7639    9.2784    4.2192
    19         H       15.1114    9.8679    2.7085
    20         C       17.2942   10.0675    2.8525
    21         H       18.0425   10.2891    3.6542
    22         C       17.4462   11.1171    1.7449
    23         H       18.4871   11.2020    1.4153
    24         H       16.8479   10.8555    0.8627
    25         H       17.1161   12.1100    2.0681
    26         C       17.5963    8.6661    2.3098
    27         H       18.5808    8.6249    1.8318
    28         H       17.5811    7.9134    3.1059
    29         H       16.8589    8.3552    1.5597
    30         C       14.0478   11.5075    4.5896
    31         O       13.3367   10.5080    4.5108
    32         O       13.6428   12.7096    4.8722
    33         O       15.2399   14.2929    6.0549
    34         H       14.9031   15.1428    5.6722
    35         H       14.4494   13.5795    5.5261

 General Reference for PM6:
 "Optimization of Parameters for Semiempirical Methods V: Modification of NDDO Approximations
 and Application to 70 Elements", J. J. P. Stewart, J. Mol. Mod., 13, 1173-1213 (2007)
 URL: http://www.springerlink.com/content/ar33482301010477/fulltext.pdf

           Empirical Formula: C9 H20 N2 O4  =    35 atoms



      MOLECULAR POINT GROUP   :   C1  


      RHF CALCULATION, NO. OF DOUBLY OCCUPIED LEVELS = 45

  SCF CRITERION =    0.1000E-07

 -------------------------------------------------------------------------------
PM6 NOANCI 1SCF GRADIENTS EPS=80.1 AUX(0,PRECISION=9) RELSCF=0.0001
 Title: ASE job



     1SCF WAS SPECIFIED, SO BFGS WAS NOT USED                 
     SCF FIELD WAS ACHIEVED                                   


                              PM6 CALCULATION
                                                       MOPAC2016 (Version: 17.143L)
                                                       Wed Jun 14 15:38:42 2017
                                                       No. of days remaining = 343




          FINAL HEAT OF FORMATION =       -222.73223 KCAL/MOL =    -931.91166 KJ/MOL
          VAN DER WAALS AREA      =        253.49 SQUARE ANGSTROMS


          TOTAL ENERGY            =      -2901.81565 EV
          ELECTRONIC ENERGY       =      -4501.73198 EV  POINT GROUP:     C1  
          CORE-CORE REPULSION     =       1599.91633 EV
          DIELECTRIC ENERGY       =         -2.04446 EV
          COSMO AREA              =        253.49 SQUARE ANGSTROMS
          COSMO VOLUME            =        281.09 CUBIC ANGSTROMS

          GRADIENT NORM           =         48.68335
          IONIZATION POTENTIAL    =         10.466869 EV
          HOMO LUMO ENERGIES (EV) =        -10.467  0.321
          NO. OF FILLED LEVELS    =         45
          MOLECULAR WEIGHT        =        220.2680

          MOLECULAR DIMENSIONS (Angstroms)

            Atom       Atom       Distance
            H    29    H     3     9.23647
            H    34    H     8     6.13622
            O    31    H    23     5.52043


          SCF CALCULATIONS        =        108
 
          WALL-CLOCK TIME         =          0.832 SECONDS
          COMPUTATION TIME        =          3.208 SECONDS

          LARGEST ATOMIC GRADIENTS

          Atom     Label                  Cartesian Coordinates        |Gradient|
                                         X          Y          Z

            34       H                14.90314   15.14285    5.67218     26.745
            35       H                14.44935   13.57946    5.52593     19.817
             3       H                16.92289   13.58701    9.17132     17.229
             1       N                16.34991   13.30014    8.35646     15.792
            33       O                15.23990   14.29288    6.05485     15.043
             4       H                15.60649   14.12087    7.18994     14.962
            31       O                13.33672   10.50798    4.51085      9.028
             2       H                15.60080   12.73065    8.80726      8.386
            12       O                14.99177   11.67367    6.97465      6.112
            30       C                14.04775   11.50747    4.58963      4.044



       FINAL  POINT  AND  DERIVATIVES

   PARAMETER     ATOM    TYPE            VALUE       GRADIENT
      1          1  N    CARTESIAN X    16.349910    -8.194472  KCAL/ANGSTROM
      2          1  N    CARTESIAN Y    13.300140     9.319983  KCAL/ANGSTROM
      3          1  N    CARTESIAN Z     8.356460    -9.765910  KCAL/ANGSTROM
      4          2  H    CARTESIAN X    15.600800     4.365810  KCAL/ANGSTROM
      5          2  H    CARTESIAN Y    12.730650    -3.033500  KCAL/ANGSTROM
      6          2  H    CARTESIAN Z     8.807260     6.485752  KCAL/ANGSTROM
      7          3  H    CARTESIAN X    16.922890     4.837257  KCAL/ANGSTROM
      8          3  H    CARTESIAN Y    13.587010   -13.832575  KCAL/ANGSTROM
      9          3  H    CARTESIAN Z     9.171320     9.060590  KCAL/ANGSTROM
     10          4  H    CARTESIAN X    15.606490    13.280334  KCAL/ANGSTROM
     11          4  H    CARTESIAN Y    14.120870    -2.137898  KCAL/ANGSTROM
     12          4  H    CARTESIAN Z     7.189940     6.551393  KCAL/ANGSTROM
     13          5  C    CARTESIAN X    17.193520    -0.727082  KCAL/ANGSTROM
     14          5  C    CARTESIAN Y    12.382430     0.662785  KCAL/ANGSTROM
     15          5  C    CARTESIAN Z     7.505730     2.342751  KCAL/ANGSTROM
     16          6  H    CARTESIAN X    17.960970    -1.030605  KCAL/ANGSTROM
     17          6  H    CARTESIAN Y    13.029290     0.618578  KCAL/ANGSTROM
     18          6  H    CARTESIAN Z     7.003870     1.612907  KCAL/ANGSTROM
     19          7  C    CARTESIAN X    17.872090     0.961350  KCAL/ANGSTROM
     20          7  C    CARTESIAN Y    11.179070    -1.282997  KCAL/ANGSTROM
     21          7  C    CARTESIAN Z     8.147840    -0.540466  KCAL/ANGSTROM
     22          8  H    CARTESIAN X    18.616150     1.250492  KCAL/ANGSTROM
     23          8  H    CARTESIAN Y    11.435810    -2.517008  KCAL/ANGSTROM
     24          8  H    CARTESIAN Z     8.908930    -0.857780  KCAL/ANGSTROM
     25          9  H    CARTESIAN X    17.152360     0.870353  KCAL/ANGSTROM
     26          9  H    CARTESIAN Y    10.480990    -1.933342  KCAL/ANGSTROM
     27          9  H    CARTESIAN Z     8.606240    -1.165909  KCAL/ANGSTROM
     28         10  H    CARTESIAN X    18.407180     0.741511  KCAL/ANGSTROM
     29         10  H    CARTESIAN Y    10.582740    -1.507732  KCAL/ANGSTROM
     30         10  H    CARTESIAN Z     7.385570    -1.654403  KCAL/ANGSTROM
     31         11  C    CARTESIAN X    16.127900     0.769484  KCAL/ANGSTROM
     32         11  C    CARTESIAN Y    11.853170     2.017258  KCAL/ANGSTROM
     33         11  C    CARTESIAN Z     6.528320     0.658512  KCAL/ANGSTROM
     34         12  O    CARTESIAN X    14.991770    -1.410838  KCAL/ANGSTROM
     35         12  O    CARTESIAN Y    11.673670     3.755954  KCAL/ANGSTROM
     36         12  O    CARTESIAN Z     6.974650     4.611111  KCAL/ANGSTROM
     37         13  N    CARTESIAN X    16.481380    -0.905799  KCAL/ANGSTROM
     38         13  N    CARTESIAN Y    11.758890    -0.033450  KCAL/ANGSTROM
     39         13  N    CARTESIAN Z     5.215710     2.214755  KCAL/ANGSTROM
     40         14  H    CARTESIAN X    17.449900    -1.220271  KCAL/ANGSTROM
     41         14  H    CARTESIAN Y    11.861950     0.729897  KCAL/ANGSTROM
     42         14  H    CARTESIAN Z     4.913560     1.095192  KCAL/ANGSTROM
     43         15  C    CARTESIAN X    15.531840    -1.594919  KCAL/ANGSTROM
     44         15  C    CARTESIAN Y    11.437970    -0.335260  KCAL/ANGSTROM
     45         15  C    CARTESIAN Z     4.125800     0.870193  KCAL/ANGSTROM
     46         16  H    CARTESIAN X    15.622060    -0.186725  KCAL/ANGSTROM
     47         16  H    CARTESIAN Y    12.259430     0.175197  KCAL/ANGSTROM
     48         16  H    CARTESIAN Z     3.354120     1.597473  KCAL/ANGSTROM
     49         17  C    CARTESIAN X    15.882560     0.460455  KCAL/ANGSTROM
     50         17  C    CARTESIAN Y    10.093070    -0.151956  KCAL/ANGSTROM
     51         17  C    CARTESIAN Z     3.475500    -0.047484  KCAL/ANGSTROM
     52         18  H    CARTESIAN X    15.763950     0.101584  KCAL/ANGSTROM
     53         18  H    CARTESIAN Y     9.278360    -0.367921  KCAL/ANGSTROM
     54         18  H    CARTESIAN Z     4.219170    -0.153499  KCAL/ANGSTROM
     55         19  H    CARTESIAN X    15.111410     0.559319  KCAL/ANGSTROM
     56         19  H    CARTESIAN Y     9.867910     0.259526  KCAL/ANGSTROM
     57         19  H    CARTESIAN Z     2.708530     0.134478  KCAL/ANGSTROM
     58         20  C    CARTESIAN X    17.294210     0.126263  KCAL/ANGSTROM
     59         20  C    CARTESIAN Y    10.067530     0.083237  KCAL/ANGSTROM
     60         20  C    CARTESIAN Z     2.852530     0.026861  KCAL/ANGSTROM
     61         21  H    CARTESIAN X    18.042460     0.140129  KCAL/ANGSTROM
     62         21  H    CARTESIAN Y    10.289130     0.128741  KCAL/ANGSTROM
     63         21  H    CARTESIAN Z     3.654160     0.010675  KCAL/ANGSTROM
     64         22  C    CARTESIAN X    17.446220    -0.063224  KCAL/ANGSTROM
     65         22  C    CARTESIAN Y    11.117140     0.282745  KCAL/ANGSTROM
     66         22  C    CARTESIAN Z     1.744900     0.114815  KCAL/ANGSTROM
     67         23  H    CARTESIAN X    18.487110     0.256844  KCAL/ANGSTROM
     68         23  H    CARTESIAN Y    11.201990     0.339870  KCAL/ANGSTROM
     69         23  H    CARTESIAN Z     1.415310     0.141674  KCAL/ANGSTROM
     70         24  H    CARTESIAN X    16.847920     0.230081  KCAL/ANGSTROM
     71         24  H    CARTESIAN Y    10.855480     0.064655  KCAL/ANGSTROM
     72         24  H    CARTESIAN Z     0.862710    -0.180142  KCAL/ANGSTROM
     73         25  H    CARTESIAN X    17.116050    -0.114956  KCAL/ANGSTROM
     74         25  H    CARTESIAN Y    12.109960    -0.116776  KCAL/ANGSTROM
     75         25  H    CARTESIAN Z     2.068070    -0.057551  KCAL/ANGSTROM
     76         26  C    CARTESIAN X    17.596250    -0.038659  KCAL/ANGSTROM
     77         26  C    CARTESIAN Y     8.666140     0.316461  KCAL/ANGSTROM
     78         26  C    CARTESIAN Z     2.309810     0.019601  KCAL/ANGSTROM
     79         27  H    CARTESIAN X    18.580810     0.193598  KCAL/ANGSTROM
     80         27  H    CARTESIAN Y     8.624870     0.066290  KCAL/ANGSTROM
     81         27  H    CARTESIAN Z     1.831760    -0.172785  KCAL/ANGSTROM
     82         28  H    CARTESIAN X    17.581130     0.165178  KCAL/ANGSTROM
     83         28  H    CARTESIAN Y     7.913370    -0.012378  KCAL/ANGSTROM
     84         28  H    CARTESIAN Z     3.105880     0.032826  KCAL/ANGSTROM
     85         29  H    CARTESIAN X    16.858880     0.071574  KCAL/ANGSTROM
     86         29  H    CARTESIAN Y     8.355200    -0.005993  KCAL/ANGSTROM
     87         29  H    CARTESIAN Z     1.559720     0.040019  KCAL/ANGSTROM
     88         30  C    CARTESIAN X    14.047750    -3.488220  KCAL/ANGSTROM
     89         30  C    CARTESIAN Y    11.507470    -2.019378  KCAL/ANGSTROM
     90         30  C    CARTESIAN Z     4.589630    -0.328955  KCAL/ANGSTROM
     91         31  O    CARTESIAN X    13.336720     2.109027  KCAL/ANGSTROM
     92         31  O    CARTESIAN Y    10.507980    -8.776952  KCAL/ANGSTROM
     93         31  O    CARTESIAN Z     4.510850     0.121487  KCAL/ANGSTROM
     94         32  O    CARTESIAN X    13.642770    -1.363160  KCAL/ANGSTROM
     95         32  O    CARTESIAN Y    12.709600    -0.400852  KCAL/ANGSTROM
     96         32  O    CARTESIAN Z     4.872160    -1.775710  KCAL/ANGSTROM
     97         33  O    CARTESIAN X    15.239900    -7.540203  KCAL/ANGSTROM
     98         33  O    CARTESIAN Y    14.292880    -5.971983  KCAL/ANGSTROM
     99         33  O    CARTESIAN Z     6.054850    11.565923  KCAL/ANGSTROM
    100         34  H    CARTESIAN X    14.903140    -7.248798  KCAL/ANGSTROM
    101         34  H    CARTESIAN Y    15.142850     6.513867  KCAL/ANGSTROM
    102         34  H    CARTESIAN Z     5.672180   -24.906063  KCAL/ANGSTROM
    103         35  H    CARTESIAN X    14.449350     1.619587  KCAL/ANGSTROM
    104         35  H    CARTESIAN Y    13.579460    17.345514  KCAL/ANGSTROM
    105         35  H    CARTESIAN Z     5.525930    -9.446313  KCAL/ANGSTROM




   ATOM   CHEMICAL          X               Y               Z
  NUMBER   SYMBOL      (ANGSTROMS)     (ANGSTROMS)     (ANGSTROMS)
 
     1       N         16.34991000  *  13.30014000  *   8.35646000  *
     2       H         15.60080000  *  12.73065000  *   8.80726000  *
     3       H         16.92289000  *  13.58701000  *   9.17132000  *
     4       H         15.60649000  *  14.12087000  *   7.18994000  *
     5       C         17.19352000  *  12.38243000  *   7.50573000  *
     6       H         17.96097000  *  13.02929000  *   7.00387000  *
     7       C         17.87209000  *  11.17907000  *   8.14784000  *
     8       H         18.61615000  *  11.43581000  *   8.90893000  *
     9       H         17.15236000  *  10.48099000  *   8.60624000  *
    10       H         18.40718000  *  10.58274000  *   7.38557000  *
    11       C         16.12790000  *  11.85317000  *   6.52832000  *
    12       O         14.99177000  *  11.67367000  *   6.97465000  *
    13       N         16.48138000  *  11.75889000  *   5.21571000  *
    14       H         17.44990000  *  11.86195000  *   4.91356000  *
    15       C         15.53184000  *  11.43797000  *   4.12580000  *
    16       H         15.62206000  *  12.25943000  *   3.35412000  *
    17       C         15.88256000  *  10.09307000  *   3.47550000  *
    18       H         15.76395000  *   9.27836000  *   4.21917000  *
    19       H         15.11141000  *   9.86791000  *   2.70853000  *
    20       C         17.29421000  *  10.06753000  *   2.85253000  *
    21       H         18.04246000  *  10.28913000  *   3.65416000  *
    22       C         17.44622000  *  11.11714000  *   1.74490000  *
    23       H         18.48711000  *  11.20199000  *   1.41531000  *
    24       H         16.84792000  *  10.85548000  *   0.86271000  *
    25       H         17.11605000  *  12.10996000  *   2.06807000  *
    26       C         17.59625000  *   8.66614000  *   2.30981000  *
    27       H         18.58081000  *   8.62487000  *   1.83176000  *
    28       H         17.58113000  *   7.91337000  *   3.10588000  *
    29       H         16.85888000  *   8.35520000  *   1.55972000  *
    30       C         14.04775000  *  11.50747000  *   4.58963000  *
    31       O         13.33672000  *  10.50798000  *   4.51085000  *
    32       O         13.64277000  *  12.70960000  *   4.87216000  *
    33       O         15.23990000  *  14.29288000  *   6.05485000  *
    34       H         14.90314000  *  15.14285000  *   5.67218000  *
    35       H         14.44935000  *  13.57946000  *   5.52593000  *

                             CARTESIAN COORDINATES

   1    N       16.349910000    13.300140000     8.356460000
   2    H       15.600800000    12.730650000     8.807260000
   3    H       16.922890000    13.587010000     9.171320000
   4    H       15.606490000    14.120870000     7.189940000
   5    C       17.193520000    12.382430000     7.505730000
   6    H       17.960970000    13.029290000     7.003870000
   7    C       17.872090000    11.179070000     8.147840000
   8    H       18.616150000    11.435810000     8.908930000
   9    H       17.152360000    10.480990000     8.606240000
  10    H       18.407180000    10.582740000     7.385570000
  11    C       16.127900000    11.853170000     6.528320000
  12    O       14.991770000    11.673670000     6.974650000
  13    N       16.481380000    11.758890000     5.215710000
  14    H       17.449900000    11.861950000     4.913560000
  15    C       15.531840000    11.437970000     4.125800000
  16    H       15.622060000    12.259430000     3.354120000
  17    C       15.882560000    10.093070000     3.475500000
  18    H       15.763950000     9.278360000     4.219170000
  19    H       15.111410000     9.867910000     2.708530000
  20    C       17.294210000    10.067530000     2.852530000
  21    H       18.042460000    10.289130000     3.654160000
  22    C       17.446220000    11.117140000     1.744900000
  23    H       18.487110000    11.201990000     1.415310000
  24    H       16.847920000    10.855480000     0.862710000
  25    H       17.116050000    12.109960000     2.068070000
  26    C       17.596250000     8.666140000     2.309810000
  27    H       18.580810000     8.624870000     1.831760000
  28    H       17.581130000     7.913370000     3.105880000
  29    H       16.858880000     8.355200000     1.559720000
  30    C       14.047750000    11.507470000     4.589630000
  31    O       13.336720000    10.507980000     4.510850000
  32    O       13.642770000    12.709600000     4.872160000
  33    O       15.239900000    14.292880000     6.054850000
  34    H       14.903140000    15.142850000     5.672180000
  35    H       14.449350000    13.579460000     5.525930000


           Empirical Formula: C9 H20 N2 O4  =    35 atoms



      MOLECULAR POINT GROUP   :   C1  


                  EIGENVALUES  
 -33.46349 -32.14698 -31.42189 -30.69864 -30.08760 -28.99377 -28.90097 -27.06666
 -25.99903 -24.25443 -23.41623 -22.78473 -21.23224 -20.27779 -19.39915 -19.31971
 -18.90855 -18.05710 -17.40366 -16.69516 -16.33491 -16.08917 -15.69620 -15.61631
 -15.40837 -15.20609 -14.82650 -14.67173 -14.51498 -13.89115 -13.64984 -13.42949
 -13.37333 -13.17841 -12.90112 -12.79089 -12.21839 -12.10791 -11.86959 -11.80892
 -11.53621 -11.44710 -11.05800 -10.81022 -10.46687   0.32067   0.58602   1.24893
   1.46335   2.14178   2.37922   2.83824   3.25524   3.38190   3.48495   3.68005
   4.05192   4.21725   4.42470   4.50866   4.55541   4.82098   5.03545   5.11022
   5.36637   5.37538   5.48389   5.52273   5.62686   5.75961   5.91156   5.94520
   5.96124   5.97620   5.99331   6.17938   6.35034   6.42870   6.86970   6.97748


              NET ATOMIC CHARGES AND DIPOLE CONTRIBUTIONS

  ATOM NO.   TYPE          CHARGE      No. of ELECS.   s-Pop       p-Pop       
    1          N          -0.476852        5.4769     1.59527     3.88158
    2          H           0.255288        0.7447     0.74471
    3          H           0.272413        0.7276     0.72759
    4          H           0.471865        0.5281     0.52813
    5          C          -0.076426        4.0764     1.11335     2.96308
    6          H           0.188418        0.8116     0.81158
    7          C          -0.522998        4.5230     1.08990     3.43309
    8          H           0.185954        0.8140     0.81405
    9          H           0.180197        0.8198     0.81980
   10          H           0.184642        0.8154     0.81536
   11          C           0.561805        3.4382     1.08381     2.35439
   12          O          -0.671316        6.6713     1.85536     4.81596
   13          N          -0.425886        5.4259     1.48603     3.93986
   14          H           0.313135        0.6869     0.68686
   15          C          -0.098392        4.0984     1.12399     2.97440
   16          H           0.179908        0.8201     0.82009
   17          C          -0.333059        4.3331     1.10013     3.23293
   18          H           0.161155        0.8388     0.83884
   19          H           0.165186        0.8348     0.83481
   20          C           0.035498        3.9645     1.07584     2.88867
   21          H           0.110185        0.8898     0.88981
   22          C          -0.517350        4.5173     1.09025     3.42710
   23          H           0.158459        0.8415     0.84154
   24          H           0.161245        0.8388     0.83876
   25          H           0.154501        0.8455     0.84550
   26          C          -0.514239        4.5142     1.08986     3.42438
   27          H           0.158951        0.8410     0.84105
   28          H           0.156260        0.8437     0.84374
   29          H           0.159121        0.8409     0.84088
   30          C           0.747550        3.2524     1.06921     2.18324
   31          O          -0.700397        6.7004     1.85416     4.84624
   32          O          -0.779765        6.7798     1.85090     4.92886
   33          O          -0.669593        6.6696     1.75756     4.91204
   34          H           0.389370        0.6106     0.61063
   35          H           0.435166        0.5648     0.56483
 DIPOLE           X         Y         Z       TOTAL
 POINT-CHG.    14.002     7.013     4.001    16.163
 HYBRID        -0.134    -0.464     0.672     0.828
 SUM           13.868     6.548     4.673    16.032


          ATOMIC ORBITAL ELECTRON POPULATIONS

     Atom    s        px        py        pz   
    1  N   1.59527   1.23279   1.35879   1.29000
    2  H   0.74471
    3  H   0.72759
    4  H   0.52813
    5  C   1.11335   0.99763   0.98840   0.97705
    6  H   0.81158
    7  C   1.08990   1.16977   1.07829   1.18503
    8  H   0.81405
    9  H   0.81980
   10  H   0.81536
   11  C   1.08381   0.83420   0.72027   0.79992
   12  O   1.85536   1.38644   1.65231   1.77720
   13  N   1.48603   1.19781   1.63670   1.10535
   14  H   0.68686
   15  C   1.12399   0.96200   1.06859   0.94382
   16  H   0.82009
   17  C   1.10013   1.07909   1.02393   1.12991
   18  H   0.83884
   19  H   0.83481
   20  C   1.07584   0.96926   0.93118   0.98822
   21  H   0.88981
   22  C   1.09025   1.18248   1.11956   1.12505
   23  H   0.84154
   24  H   0.83876
   25  H   0.84550
   26  C   1.08986   1.17980   1.07547   1.16912
   27  H   0.84105
   28  H   0.84374
   29  H   0.84088
   30  C   1.06921   0.81816   0.73956   0.62552
   31  O   1.85416   1.70466   1.48761   1.65397
   32  O   1.85090   1.78427   1.40870   1.73589
   33  O   1.75756   1.77788   1.50548   1.62867
   34  H   0.61063
   35  H   0.56483

 **********************
 *                    *
 * JOB ENDED NORMALLY *
 *                    *
 **********************



 TOTAL JOB TIME:             0.86 SECONDS

 == MOPAC DONE ==
