 *******************************************************************************
 ** Site#: 27415        For non-commercial use only    Version 17.143L 64BITS **
 *******************************************************************************
 ** Cite this program as: MOPAC2016, Version: 17.143L, James J. P. Stewart,   **
 ** Stewart Computational Chemistry, web: HTTP://OpenMOPAC.net. Days left: 353**
 *******************************************************************************
 **                                                                           **
 **                                MOPAC2016                                  **
 **                                                                           **
 *******************************************************************************

                              PM6 CALCULATION RESULTS


 *******************************************************************************
 *  CALCULATION DONE:                                Sun Jun  4 19:50:37 2017  *
 *  PM6        - The PM6 Hamiltonian to be used
 *  EPS= 80.10 - USE ANDREAS KLAMT'S COSMO IMPLICIT SOLVATION MODEL
 *  NOANCI     - DO NOT USE ANALYTICAL C.I. DERIVATIVES
 *  1SCF       - DO 1 SCF AND THEN STOP 
 *  T=         - A TIME OF 172800.0 SECONDS REQUESTED
 *  DUMP=N     - RESTART FILE WRITTEN EVERY  7200.000 SECONDS
 *  RELSCF     - DEFAULT SCF CRITERION MULTIPLIED BY***
 *              (DEFAULT SCFCRT= 0.00010)
 *  AUX        - OUTPUT AUXILIARY INFORMATION
 *  GRADIENTS  - ALL GRADIENTS TO BE PRINTED
 *******************************************************************************
PM6 NOANCI 1SCF GRADIENTS EPS=80.1 AUX(0,PRECISION=9) RELSCF=0.0001
 Title: ASE job

   ATOM   CHEMICAL          X               Y               Z
  NUMBER   SYMBOL      (ANGSTROMS)     (ANGSTROMS)     (ANGSTROMS)
 
     1       N         16.88713000  *  13.53985000  *   8.76364000  *
     2       H         16.00353000  *  13.04374000  *   8.99031000  *
     3       H         17.43637000  *  13.50719000  *   9.62576000  *
     4       H         15.76606000  *  15.06985000  *   7.32440000  *
     5       C         17.61772000  *  12.82032000  *   7.66581000  *
     6       H         18.32588000  *  13.57224000  *   7.17906000  *
     7       C         18.37110000  *  11.57251000  *   8.10764000  *
     8       H         19.14097000  *  11.80928000  *   8.85035000  *
     9       H         17.69553000  *  10.83445000  *   8.57001000  *
    10       H         18.88037000  *  11.06724000  *   7.27305000  *
    11       C         16.56655000  *  12.38692000  *   6.61509000  *
    12       O         15.39948000  *  12.09492000  *   6.92189000  *
    13       N         16.96603000  *  12.27404000  *   5.29383000  *
    14       H         17.91070000  *  12.41317000  *   4.97321000  *
    15       C         15.98060000  *  11.79727000  *   4.29494000  *
    16       H         16.13920000  *  12.39070000  *   3.34834000  *
    17       C         16.13656000  *  10.30026000  *   3.97188000  *
    18       H         16.10446000  *   9.70611000  *   4.91996000  *
    19       H         15.24042000  *   9.95839000  *   3.41265000  *
    20       C         17.41809000  *   9.97587000  *   3.18888000  *
    21       H         18.30231000  *  10.28842000  *   3.81174000  *
    22       C         17.45726000  *  10.70887000  *   1.84368000  *
    23       H         18.39288000  *  10.52413000  *   1.30392000  *
    24       H         16.64151000  *  10.38334000  *   1.18021000  *
    25       H         17.31676000  *  11.79696000  *   1.97053000  *
    26       C         17.50432000  *   8.45463000  *   2.95787000  *
    27       H         18.42868000  *   8.18633000  *   2.44020000  *
    28       H         17.48361000  *   7.90000000  *   3.90342000  *
    29       H         16.67672000  *   8.09230000  *   2.34190000  *
    30       C         14.56136000  *  12.10367000  *   4.81013000  *
    31       O         13.62705000  *  11.36139000  *   5.02099000  *
    32       O         14.36541000  *  13.47377000  *   4.74977000  *
    33       O         15.42593000  *  14.58092000  *   6.57265000  *
    34       H         15.35366000  *  15.19665000  *   5.82362000  *
    35       H         13.89611000  *  13.84330000  *   5.56346000  *
 


          CARTESIAN COORDINATES 

    NO.       ATOM         X         Y         Z

     1         N       16.8871   13.5398    8.7636
     2         H       16.0035   13.0437    8.9903
     3         H       17.4364   13.5072    9.6258
     4         H       15.7661   15.0699    7.3244
     5         C       17.6177   12.8203    7.6658
     6         H       18.3259   13.5722    7.1791
     7         C       18.3711   11.5725    8.1076
     8         H       19.1410   11.8093    8.8504
     9         H       17.6955   10.8345    8.5700
    10         H       18.8804   11.0672    7.2730
    11         C       16.5665   12.3869    6.6151
    12         O       15.3995   12.0949    6.9219
    13         N       16.9660   12.2740    5.2938
    14         H       17.9107   12.4132    4.9732
    15         C       15.9806   11.7973    4.2949
    16         H       16.1392   12.3907    3.3483
    17         C       16.1366   10.3003    3.9719
    18         H       16.1045    9.7061    4.9200
    19         H       15.2404    9.9584    3.4127
    20         C       17.4181    9.9759    3.1889
    21         H       18.3023   10.2884    3.8117
    22         C       17.4573   10.7089    1.8437
    23         H       18.3929   10.5241    1.3039
    24         H       16.6415   10.3833    1.1802
    25         H       17.3168   11.7970    1.9705
    26         C       17.5043    8.4546    2.9579
    27         H       18.4287    8.1863    2.4402
    28         H       17.4836    7.9000    3.9034
    29         H       16.6767    8.0923    2.3419
    30         C       14.5614   12.1037    4.8101
    31         O       13.6271   11.3614    5.0210
    32         O       14.3654   13.4738    4.7498
    33         O       15.4259   14.5809    6.5727
    34         H       15.3537   15.1966    5.8236
    35         H       13.8961   13.8433    5.5635

 General Reference for PM6:
 "Optimization of Parameters for Semiempirical Methods V: Modification of NDDO Approximations
 and Application to 70 Elements", J. J. P. Stewart, J. Mol. Mod., 13, 1173-1213 (2007)
 URL: http://www.springerlink.com/content/ar33482301010477/fulltext.pdf

           Empirical Formula: C9 H20 N2 O4  =    35 atoms



      MOLECULAR POINT GROUP   :   C1  


      RHF CALCULATION, NO. OF DOUBLY OCCUPIED LEVELS = 45

  SCF CRITERION =    0.1000E-07

 -------------------------------------------------------------------------------
PM6 NOANCI 1SCF GRADIENTS EPS=80.1 AUX(0,PRECISION=9) RELSCF=0.0001
 Title: ASE job



     1SCF WAS SPECIFIED, SO BFGS WAS NOT USED                 
     SCF FIELD WAS ACHIEVED                                   


                              PM6 CALCULATION
                                                       MOPAC2016 (Version: 17.143L)
                                                       Sun Jun  4 19:50:38 2017
                                                       No. of days remaining = 353




          FINAL HEAT OF FORMATION =       -230.66534 KCAL/MOL =    -965.10378 KJ/MOL
          VAN DER WAALS AREA      =        251.90 SQUARE ANGSTROMS


          TOTAL ENERGY            =      -2902.16084 EV
          ELECTRONIC ENERGY       =      -4613.07110 EV  POINT GROUP:     C1  
          CORE-CORE REPULSION     =       1710.91026 EV
          DIELECTRIC ENERGY       =         -1.17971 EV
          COSMO AREA              =        251.90 SQUARE ANGSTROMS
          COSMO VOLUME            =        286.96 CUBIC ANGSTROMS

          GRADIENT NORM           =         42.63936
          IONIZATION POTENTIAL    =         10.122549 EV
          HOMO LUMO ENERGIES (EV) =        -10.123  0.208
          NO. OF FILLED LEVELS    =         45
          MOLECULAR WEIGHT        =        220.2680

          MOLECULAR DIMENSIONS (Angstroms)

            Atom       Atom       Distance
            H    29    H     3     9.10784
            H     8    H    35     6.24519
            H    23    O    31     4.16403


          SCF CALCULATIONS        =        108
 
          WALL-CLOCK TIME         =          0.820 SECONDS
          COMPUTATION TIME        =          3.164 SECONDS

          LARGEST ATOMIC GRADIENTS

          Atom     Label                  Cartesian Coordinates        |Gradient|
                                         X          Y          Z

            33       O                15.42593   14.58092    6.57265     15.922
             5       C                17.61772   12.82032    7.66581     13.497
            11       C                16.56655   12.38692    6.61509     12.309
            12       O                15.39948   12.09492    6.92189     11.928
             6       H                18.32588   13.57224    7.17906     11.611
             1       N                16.88713   13.53985    8.76364     11.055
            17       C                16.13656   10.30026    3.97188      9.735
            34       H                15.35366   15.19665    5.82362      8.584
            13       N                16.96603   12.27404    5.29383      8.360
             2       H                16.00353   13.04374    8.99031      8.331



       FINAL  POINT  AND  DERIVATIVES

   PARAMETER     ATOM    TYPE            VALUE       GRADIENT
      1          1  N    CARTESIAN X    16.887130    -5.770950  KCAL/ANGSTROM
      2          1  N    CARTESIAN Y    13.539850     9.428174  KCAL/ANGSTROM
      3          1  N    CARTESIAN Z     8.763640     0.124831  KCAL/ANGSTROM
      4          2  H    CARTESIAN X    16.003530    -4.443073  KCAL/ANGSTROM
      5          2  H    CARTESIAN Y    13.043740    -3.769484  KCAL/ANGSTROM
      6          2  H    CARTESIAN Z     8.990310     5.954245  KCAL/ANGSTROM
      7          3  H    CARTESIAN X    17.436370    -0.110653  KCAL/ANGSTROM
      8          3  H    CARTESIAN Y    13.507190    -1.583584  KCAL/ANGSTROM
      9          3  H    CARTESIAN Z     9.625760     2.256949  KCAL/ANGSTROM
     10          4  H    CARTESIAN X    15.766060     0.822287  KCAL/ANGSTROM
     11          4  H    CARTESIAN Y    15.069850     2.443528  KCAL/ANGSTROM
     12          4  H    CARTESIAN Z     7.324400    -2.586863  KCAL/ANGSTROM
     13          5  C    CARTESIAN X    17.617720     7.249387  KCAL/ANGSTROM
     14          5  C    CARTESIAN Y    12.820320    -8.134307  KCAL/ANGSTROM
     15          5  C    CARTESIAN Z     7.665810     7.965660  KCAL/ANGSTROM
     16          6  H    CARTESIAN X    18.325880     6.319411  KCAL/ANGSTROM
     17          6  H    CARTESIAN Y    13.572240     5.068862  KCAL/ANGSTROM
     18          6  H    CARTESIAN Z     7.179060    -8.317742  KCAL/ANGSTROM
     19          7  C    CARTESIAN X    18.371100    -1.328406  KCAL/ANGSTROM
     20          7  C    CARTESIAN Y    11.572510     1.876709  KCAL/ANGSTROM
     21          7  C    CARTESIAN Z     8.107640    -0.762261  KCAL/ANGSTROM
     22          8  H    CARTESIAN X    19.140970    -1.105736  KCAL/ANGSTROM
     23          8  H    CARTESIAN Y    11.809280    -0.274527  KCAL/ANGSTROM
     24          8  H    CARTESIAN Z     8.850350    -0.922019  KCAL/ANGSTROM
     25          9  H    CARTESIAN X    17.695530    -0.657045  KCAL/ANGSTROM
     26          9  H    CARTESIAN Y    10.834450    -0.163503  KCAL/ANGSTROM
     27          9  H    CARTESIAN Z     8.570010     0.758068  KCAL/ANGSTROM
     28         10  H    CARTESIAN X    18.880370     1.433195  KCAL/ANGSTROM
     29         10  H    CARTESIAN Y    11.067240    -1.137061  KCAL/ANGSTROM
     30         10  H    CARTESIAN Z     7.273050    -1.636859  KCAL/ANGSTROM
     31         11  C    CARTESIAN X    16.566550     3.415843  KCAL/ANGSTROM
     32         11  C    CARTESIAN Y    12.386920    -0.485700  KCAL/ANGSTROM
     33         11  C    CARTESIAN Z     6.615090   -11.815789  KCAL/ANGSTROM
     34         12  O    CARTESIAN X    15.399480   -10.762319  KCAL/ANGSTROM
     35         12  O    CARTESIAN Y    12.094920    -1.979776  KCAL/ANGSTROM
     36         12  O    CARTESIAN Z     6.921890     4.745677  KCAL/ANGSTROM
     37         13  N    CARTESIAN X    16.966030     4.796284  KCAL/ANGSTROM
     38         13  N    CARTESIAN Y    12.274040     2.314910  KCAL/ANGSTROM
     39         13  N    CARTESIAN Z     5.293830    -6.443856  KCAL/ANGSTROM
     40         14  H    CARTESIAN X    17.910700    -4.251168  KCAL/ANGSTROM
     41         14  H    CARTESIAN Y    12.413170    -1.542481  KCAL/ANGSTROM
     42         14  H    CARTESIAN Z     4.973210     1.078506  KCAL/ANGSTROM
     43         15  C    CARTESIAN X    15.980600     2.226381  KCAL/ANGSTROM
     44         15  C    CARTESIAN Y    11.797270     4.710073  KCAL/ANGSTROM
     45         15  C    CARTESIAN Z     4.294940     3.820310  KCAL/ANGSTROM
     46         16  H    CARTESIAN X    16.139200     2.170623  KCAL/ANGSTROM
     47         16  H    CARTESIAN Y    12.390700    -2.733433  KCAL/ANGSTROM
     48         16  H    CARTESIAN Z     3.348340     1.689855  KCAL/ANGSTROM
     49         17  C    CARTESIAN X    16.136560     3.443929  KCAL/ANGSTROM
     50         17  C    CARTESIAN Y    10.300260     0.486570  KCAL/ANGSTROM
     51         17  C    CARTESIAN Z     3.971880    -9.092190  KCAL/ANGSTROM
     52         18  H    CARTESIAN X    16.104460     0.156590  KCAL/ANGSTROM
     53         18  H    CARTESIAN Y     9.706110    -3.119431  KCAL/ANGSTROM
     54         18  H    CARTESIAN Z     4.919960     3.747367  KCAL/ANGSTROM
     55         19  H    CARTESIAN X    15.240420     0.446390  KCAL/ANGSTROM
     56         19  H    CARTESIAN Y     9.958390    -0.374533  KCAL/ANGSTROM
     57         19  H    CARTESIAN Z     3.412650     0.403565  KCAL/ANGSTROM
     58         20  C    CARTESIAN X    17.418090    -4.333054  KCAL/ANGSTROM
     59         20  C    CARTESIAN Y     9.975870     4.443911  KCAL/ANGSTROM
     60         20  C    CARTESIAN Z     3.188880     1.255277  KCAL/ANGSTROM
     61         21  H    CARTESIAN X    18.302310     3.176256  KCAL/ANGSTROM
     62         21  H    CARTESIAN Y    10.288420     1.293215  KCAL/ANGSTROM
     63         21  H    CARTESIAN Z     3.811740     4.007989  KCAL/ANGSTROM
     64         22  C    CARTESIAN X    17.457260     4.025169  KCAL/ANGSTROM
     65         22  C    CARTESIAN Y    10.708870    -4.564233  KCAL/ANGSTROM
     66         22  C    CARTESIAN Z     1.843680     0.009404  KCAL/ANGSTROM
     67         23  H    CARTESIAN X    18.392880     0.477163  KCAL/ANGSTROM
     68         23  H    CARTESIAN Y    10.524130    -1.505921  KCAL/ANGSTROM
     69         23  H    CARTESIAN Z     1.303920    -1.783123  KCAL/ANGSTROM
     70         24  H    CARTESIAN X    16.641510    -1.377629  KCAL/ANGSTROM
     71         24  H    CARTESIAN Y    10.383340     0.944595  KCAL/ANGSTROM
     72         24  H    CARTESIAN Z     1.180210    -1.257809  KCAL/ANGSTROM
     73         25  H    CARTESIAN X    17.316760    -3.689617  KCAL/ANGSTROM
     74         25  H    CARTESIAN Y    11.796960     4.195213  KCAL/ANGSTROM
     75         25  H    CARTESIAN Z     1.970530     1.176599  KCAL/ANGSTROM
     76         26  C    CARTESIAN X    17.504320    -1.464258  KCAL/ANGSTROM
     77         26  C    CARTESIAN Y     8.454630    -5.131268  KCAL/ANGSTROM
     78         26  C    CARTESIAN Z     2.957870    -3.219921  KCAL/ANGSTROM
     79         27  H    CARTESIAN X    18.428680    -1.335599  KCAL/ANGSTROM
     80         27  H    CARTESIAN Y     8.186330     0.241252  KCAL/ANGSTROM
     81         27  H    CARTESIAN Z     2.440200     0.475160  KCAL/ANGSTROM
     82         28  H    CARTESIAN X    17.483610     0.408510  KCAL/ANGSTROM
     83         28  H    CARTESIAN Y     7.900000    -0.386613  KCAL/ANGSTROM
     84         28  H    CARTESIAN Z     3.903420     0.671258  KCAL/ANGSTROM
     85         29  H    CARTESIAN X    16.676720     1.503012  KCAL/ANGSTROM
     86         29  H    CARTESIAN Y     8.092300     0.561645  KCAL/ANGSTROM
     87         29  H    CARTESIAN Z     2.341900     0.116652  KCAL/ANGSTROM
     88         30  C    CARTESIAN X    14.561360     4.763474  KCAL/ANGSTROM
     89         30  C    CARTESIAN Y    12.103670    -2.736704  KCAL/ANGSTROM
     90         30  C    CARTESIAN Z     4.810130     2.971343  KCAL/ANGSTROM
     91         31  O    CARTESIAN X    13.627050    -6.017051  KCAL/ANGSTROM
     92         31  O    CARTESIAN Y    11.361390    -2.558833  KCAL/ANGSTROM
     93         31  O    CARTESIAN Z     5.020990     1.686001  KCAL/ANGSTROM
     94         32  O    CARTESIAN X    14.365410    -4.156316  KCAL/ANGSTROM
     95         32  O    CARTESIAN Y    13.473770     2.818278  KCAL/ANGSTROM
     96         32  O    CARTESIAN Z     4.749770    -4.236135  KCAL/ANGSTROM
     97         33  O    CARTESIAN X    15.425930     0.390403  KCAL/ANGSTROM
     98         33  O    CARTESIAN Y    14.580920   -12.286157  KCAL/ANGSTROM
     99         33  O    CARTESIAN Z     6.572650    10.120092  KCAL/ANGSTROM
    100         34  H    CARTESIAN X    15.353660    -2.879035  KCAL/ANGSTROM
    101         34  H    CARTESIAN Y    15.196650     5.355697  KCAL/ANGSTROM
    102         34  H    CARTESIAN Z     5.823620    -6.059564  KCAL/ANGSTROM
    103         35  H    CARTESIAN X    13.896110     4.357970  KCAL/ANGSTROM
    104         35  H    CARTESIAN Y    13.843300     6.707018  KCAL/ANGSTROM
    105         35  H    CARTESIAN Z     5.563260     1.241454  KCAL/ANGSTROM




   ATOM   CHEMICAL          X               Y               Z
  NUMBER   SYMBOL      (ANGSTROMS)     (ANGSTROMS)     (ANGSTROMS)
 
     1       N         16.88713000  *  13.53985000  *   8.76364000  *
     2       H         16.00353000  *  13.04374000  *   8.99031000  *
     3       H         17.43637000  *  13.50719000  *   9.62576000  *
     4       H         15.76606000  *  15.06985000  *   7.32440000  *
     5       C         17.61772000  *  12.82032000  *   7.66581000  *
     6       H         18.32588000  *  13.57224000  *   7.17906000  *
     7       C         18.37110000  *  11.57251000  *   8.10764000  *
     8       H         19.14097000  *  11.80928000  *   8.85035000  *
     9       H         17.69553000  *  10.83445000  *   8.57001000  *
    10       H         18.88037000  *  11.06724000  *   7.27305000  *
    11       C         16.56655000  *  12.38692000  *   6.61509000  *
    12       O         15.39948000  *  12.09492000  *   6.92189000  *
    13       N         16.96603000  *  12.27404000  *   5.29383000  *
    14       H         17.91070000  *  12.41317000  *   4.97321000  *
    15       C         15.98060000  *  11.79727000  *   4.29494000  *
    16       H         16.13920000  *  12.39070000  *   3.34834000  *
    17       C         16.13656000  *  10.30026000  *   3.97188000  *
    18       H         16.10446000  *   9.70611000  *   4.91996000  *
    19       H         15.24042000  *   9.95839000  *   3.41265000  *
    20       C         17.41809000  *   9.97587000  *   3.18888000  *
    21       H         18.30231000  *  10.28842000  *   3.81174000  *
    22       C         17.45726000  *  10.70887000  *   1.84368000  *
    23       H         18.39288000  *  10.52413000  *   1.30392000  *
    24       H         16.64151000  *  10.38334000  *   1.18021000  *
    25       H         17.31676000  *  11.79696000  *   1.97053000  *
    26       C         17.50432000  *   8.45463000  *   2.95787000  *
    27       H         18.42868000  *   8.18633000  *   2.44020000  *
    28       H         17.48361000  *   7.90000000  *   3.90342000  *
    29       H         16.67672000  *   8.09230000  *   2.34190000  *
    30       C         14.56136000  *  12.10367000  *   4.81013000  *
    31       O         13.62705000  *  11.36139000  *   5.02099000  *
    32       O         14.36541000  *  13.47377000  *   4.74977000  *
    33       O         15.42593000  *  14.58092000  *   6.57265000  *
    34       H         15.35366000  *  15.19665000  *   5.82362000  *
    35       H         13.89611000  *  13.84330000  *   5.56326000  *

                             CARTESIAN COORDINATES

   1    N       16.887130000    13.539850000     8.763640000
   2    H       16.003530000    13.043740000     8.990310000
   3    H       17.436370000    13.507190000     9.625760000
   4    H       15.766060000    15.069850000     7.324400000
   5    C       17.617720000    12.820320000     7.665810000
   6    H       18.325880000    13.572240000     7.179060000
   7    C       18.371100000    11.572510000     8.107640000
   8    H       19.140970000    11.809280000     8.850350000
   9    H       17.695530000    10.834450000     8.570010000
  10    H       18.880370000    11.067240000     7.273050000
  11    C       16.566550000    12.386920000     6.615090000
  12    O       15.399480000    12.094920000     6.921890000
  13    N       16.966030000    12.274040000     5.293830000
  14    H       17.910700000    12.413170000     4.973210000
  15    C       15.980600000    11.797270000     4.294940000
  16    H       16.139200000    12.390700000     3.348340000
  17    C       16.136560000    10.300260000     3.971880000
  18    H       16.104460000     9.706110000     4.919960000
  19    H       15.240420000     9.958390000     3.412650000
  20    C       17.418090000     9.975870000     3.188880000
  21    H       18.302310000    10.288420000     3.811740000
  22    C       17.457260000    10.708870000     1.843680000
  23    H       18.392880000    10.524130000     1.303920000
  24    H       16.641510000    10.383340000     1.180210000
  25    H       17.316760000    11.796960000     1.970530000
  26    C       17.504320000     8.454630000     2.957870000
  27    H       18.428680000     8.186330000     2.440200000
  28    H       17.483610000     7.900000000     3.903420000
  29    H       16.676720000     8.092300000     2.341900000
  30    C       14.561360000    12.103670000     4.810130000
  31    O       13.627050000    11.361390000     5.020990000
  32    O       14.365410000    13.473770000     4.749770000
  33    O       15.425930000    14.580920000     6.572650000
  34    H       15.353660000    15.196650000     5.823620000
  35    H       13.896110000    13.843300000     5.563260000


           Empirical Formula: C9 H20 N2 O4  =    35 atoms



      MOLECULAR POINT GROUP   :   C1  


                  EIGENVALUES  
 -33.18745 -32.29211 -31.35204 -30.40661 -30.31397 -29.58348 -28.92740 -27.04937
 -25.98627 -24.21865 -23.68414 -23.24247 -21.05811 -20.60377 -19.38050 -19.13163
 -18.41377 -17.88520 -17.24146 -16.55560 -16.41956 -15.97665 -15.72109 -15.36952
 -15.17350 -14.95513 -14.66052 -14.25728 -14.16690 -13.93439 -13.58877 -13.53163
 -13.24905 -13.18077 -12.86769 -12.71144 -12.29940 -12.02262 -11.87499 -11.85181
 -11.55632 -11.40553 -10.99436 -10.35042 -10.12255   0.20841   0.70979   1.29928
   1.43663   2.61472   2.68270   3.14898   3.36970   3.56264   3.75985   3.91127
   4.11936   4.22320   4.32073   4.50283   4.52918   4.89302   5.04478   5.26846
   5.42356   5.49093   5.56449   5.71810   5.87195   5.91045   5.92288   5.96091
   6.06340   6.20587   6.29431   6.45150   6.53219   6.67237   6.85142   6.96017


              NET ATOMIC CHARGES AND DIPOLE CONTRIBUTIONS

  ATOM NO.   TYPE          CHARGE      No. of ELECS.   s-Pop       p-Pop       
    1          N          -0.561757        5.5618     1.62739     3.93437
    2          H           0.238982        0.7610     0.76102
    3          H           0.238457        0.7615     0.76154
    4          H           0.343273        0.6567     0.65673
    5          C          -0.011274        4.0113     1.10705     2.90423
    6          H           0.174351        0.8256     0.82565
    7          C          -0.545509        4.5455     1.09368     3.45183
    8          H           0.182888        0.8171     0.81711
    9          H           0.178245        0.8218     0.82175
   10          H           0.179346        0.8207     0.82065
   11          C           0.606601        3.3934     1.09878     2.29462
   12          O          -0.660431        6.6604     1.85911     4.80132
   13          N          -0.467308        5.4673     1.49272     3.97458
   14          H           0.312199        0.6878     0.68780
   15          C          -0.024829        4.0248     1.11118     2.91365
   16          H           0.193082        0.8069     0.80692
   17          C          -0.354612        4.3546     1.10414     3.25047
   18          H           0.167689        0.8323     0.83231
   19          H           0.168806        0.8312     0.83119
   20          C           0.042506        3.9575     1.07685     2.88064
   21          H           0.115193        0.8848     0.88481
   22          C          -0.519033        4.5190     1.09198     3.42706
   23          H           0.160205        0.8398     0.83980
   24          H           0.161520        0.8385     0.83848
   25          H           0.155370        0.8446     0.84463
   26          C          -0.514737        4.5147     1.09072     3.42402
   27          H           0.158351        0.8416     0.84165
   28          H           0.156418        0.8436     0.84358
   29          H           0.159243        0.8408     0.84076
   30          C           0.718997        3.2810     1.10856     2.17244
   31          O          -0.602457        6.6025     1.84786     4.75459
   32          O          -0.605223        6.6052     1.81368     4.79154
   33          O          -0.677127        6.6771     1.77126     4.90586
   34          H           0.341482        0.6585     0.65852
   35          H           0.391093        0.6089     0.60891
 DIPOLE           X         Y         Z       TOTAL
 POINT-CHG.     9.346     2.210    -1.325     9.695
 HYBRID        -0.414    -0.554     0.769     1.034
 SUM            8.932     1.656    -0.555     9.101


          ATOMIC ORBITAL ELECTRON POPULATIONS

     Atom    s        px        py        pz   
    1  N   1.62739   1.19668   1.55480   1.18288
    2  H   0.76102
    3  H   0.76154
    4  H   0.65673
    5  C   1.10705   0.97656   0.99230   0.93536
    6  H   0.82565
    7  C   1.09368   1.16497   1.09130   1.19556
    8  H   0.81711
    9  H   0.82175
   10  H   0.82065
   11  C   1.09878   0.81918   0.67748   0.79797
   12  O   1.85911   1.35883   1.63389   1.80860
   13  N   1.49272   1.20035   1.64898   1.12525
   14  H   0.68780
   15  C   1.11118   0.89746   1.02650   0.98968
   16  H   0.80692
   17  C   1.10414   1.11273   0.98607   1.15167
   18  H   0.83231
   19  H   0.83119
   20  C   1.07685   0.99083   0.93490   0.95491
   21  H   0.88481
   22  C   1.09198   1.18787   1.14906   1.09013
   23  H   0.83980
   24  H   0.83848
   25  H   0.84463
   26  C   1.09072   1.18628   1.05905   1.17869
   27  H   0.84165
   28  H   0.84358
   29  H   0.84076
   30  C   1.10856   0.83382   0.72593   0.61269
   31  O   1.84786   1.52241   1.65171   1.58048
   32  O   1.81368   1.82340   1.39557   1.57256
   33  O   1.77126   1.92113   1.57957   1.40516
   34  H   0.65852
   35  H   0.60891

 **********************
 *                    *
 * JOB ENDED NORMALLY *
 *                    *
 **********************



 TOTAL JOB TIME:             0.84 SECONDS

 == MOPAC DONE ==
