 *******************************************************************************
 ** Site#: 27415        For non-commercial use only    Version 17.163L 64BITS **
 *******************************************************************************
 ** Cite this program as: MOPAC2016, Version: 17.163L, James J. P. Stewart,   **
 ** Stewart Computational Chemistry, web: HTTP://OpenMOPAC.net. Days left: 355**
 *******************************************************************************
 **                                                                           **
 **                                MOPAC2016                                  **
 **                                                                           **
 *******************************************************************************

                              PM6 CALCULATION RESULTS


 *******************************************************************************
 *  CALCULATION DONE:                                Thu Jun 22 18:53:14 2017  *
 *  PM6        - The PM6 Hamiltonian to be used
 *  NOANCI     - DO NOT USE ANALYTICAL C.I. DERIVATIVES
 *  1SCF       - DO 1 SCF AND THEN STOP 
 *  T=         - A TIME OF 172800.0 SECONDS REQUESTED
 *  DUMP=N     - RESTART FILE WRITTEN EVERY  7200.000 SECONDS
 *  RELSCF     - DEFAULT SCF CRITERION MULTIPLIED BY***
 *              (DEFAULT SCFCRT= 0.00010)
 *  AUX        - OUTPUT AUXILIARY INFORMATION
 *  GRADIENTS  - ALL GRADIENTS TO BE PRINTED
 *******************************************************************************
PM6 NOANCI 1SCF GRADIENTS AUX(0,PRECISION=9) RELSCF=0.0001
 Title: ASE job

   ATOM   CHEMICAL          X               Y               Z
  NUMBER   SYMBOL      (ANGSTROMS)     (ANGSTROMS)     (ANGSTROMS)
 
     1      Cl          0.00000000  *   1.50000000  *   2.50000000  *
     2      Na          0.00000000  *   0.00000000  *  -2.82767000  *
     3      Na          1.50000000  *   0.00000000  *   2.12669000  *
 


          CARTESIAN COORDINATES 

    NO.       ATOM         X         Y         Z

     1        Cl        0.0000    1.5000    2.5000
     2        Na        0.0000    0.0000   -2.8277
     3        Na        1.5000    0.0000    2.1267

 General Reference for PM6:
 "Optimization of Parameters for Semiempirical Methods V: Modification of NDDO Approximations
 and Application to 70 Elements", J. J. P. Stewart, J. Mol. Mod., 13, 1173-1213 (2007)
 URL: http://www.springerlink.com/content/ar33482301010477/fulltext.pdf

           Empirical Formula: Cl Na2  =     3 atoms



      MOLECULAR POINT GROUP   :   Cs  


          UHF CALCULATION, NO. OF ALPHA ELECTRONS =    5
                           NO. OF BETA  ELECTRONS =    4
  SCF CRITERION =    0.1000E-07

 -------------------------------------------------------------------------------
PM6 NOANCI 1SCF GRADIENTS AUX(0,PRECISION=9) RELSCF=0.0001
 Title: ASE job



     1SCF WAS SPECIFIED, SO BFGS WAS NOT USED                 
     SCF FIELD WAS ACHIEVED                                   


                              PM6 CALCULATION
                                                       MOPAC2016 (Version: 17.163L)
                                                       Thu Jun 22 18:53:15 2017
                                                       No. of days remaining = 355




          FINAL HEAT OF FORMATION =        -17.02381 KCAL/MOL =     -71.22763 KJ/MOL


          TOTAL ENERGY            =       -266.20361 EV
          ELECTRONIC ENERGY       =       -317.19338 EV  POINT GROUP:     Cs  
          CORE-CORE REPULSION     =         50.98977 EV
          COSMO AREA              =        179.19 SQUARE ANGSTROMS
          COSMO VOLUME            =        181.74 CUBIC ANGSTROMS

          GRADIENT NORM           =         18.75925
          IONIZATION POTENTIAL    =          4.484340 EV
          ALPHA SOMO LUMO (EV)    =         -4.484 -0.018
          BETA  SOMO LUMO (EV)    =         -8.938 -0.413
          NO. OF ALPHA ELECTRONS  =          5
          NO. OF BETA  ELECTRONS  =          4
          MOLECULAR WEIGHT        =         81.4325

          MOLECULAR DIMENSIONS (Angstroms)

            Atom       Atom       Distance
           Na     2   Cl     1     5.53481
           Na     3   Cl     1     2.01313
           Na     3   Cl     1     0.00000


          SCF CALCULATIONS        =         11
 
          WALL-CLOCK TIME         =          0.070 SECONDS
          COMPUTATION TIME        =          0.132 SECONDS

          LARGEST ATOMIC GRADIENTS

          Atom     Label                  Cartesian Coordinates        |Gradient|
                                         X          Y          Z

             1      Cl                 0.00000    1.50000    2.50000     13.358
             3      Na                 1.50000    0.00000    2.12649     13.167
             2      Na                 0.00000    0.00000   -2.82767      0.334



       FINAL  POINT  AND  DERIVATIVES

   PARAMETER     ATOM    TYPE            VALUE       GRADIENT
      1          1 Cl    CARTESIAN X     0.000000    -9.173025  KCAL/ANGSTROM
      2          1 Cl    CARTESIAN Y     1.500000     9.309480  KCAL/ANGSTROM
      3          1 Cl    CARTESIAN Z     2.500000     2.761259  KCAL/ANGSTROM
      4          2 Na    CARTESIAN X     0.000000     0.211602  KCAL/ANGSTROM
      5          2 Na    CARTESIAN Y     0.000000    -0.134686  KCAL/ANGSTROM
      6          2 Na    CARTESIAN Z    -2.827670     0.220193  KCAL/ANGSTROM
      7          3 Na    CARTESIAN X     1.500000     8.963142  KCAL/ANGSTROM
      8          3 Na    CARTESIAN Y     0.000000    -9.172171  KCAL/ANGSTROM
      9          3 Na    CARTESIAN Z     2.126490    -2.982608  KCAL/ANGSTROM




   ATOM   CHEMICAL          X               Y               Z
  NUMBER   SYMBOL      (ANGSTROMS)     (ANGSTROMS)     (ANGSTROMS)
 
     1      Cl          0.00000000  *   1.50000000  *   2.50000000  *
     2      Na          0.00000000  *   0.00000000  *  -2.82767000  *
     3      Na          1.50000000  *   0.00000000  *   2.12649000  *

                             CARTESIAN COORDINATES

   1   Cl        0.000000000     1.500000000     2.500000000
   2   Na        0.000000000     0.000000000    -2.827670000
   3   Na        1.500000000     0.000000000     2.126490000


           Empirical Formula: Cl Na2  =     3 atoms



      MOLECULAR POINT GROUP   :   Cs  


          ALPHA EIGENVALUES  
 -24.83631  -9.22088  -8.94457  -8.93833  -4.48434  -0.01842   3.36870   3.51520
   3.53833   4.05664   4.12482   4.17511  99.93428 100.00690 100.01068 100.21325
 100.21332


           BETA EIGENVALUES 
 -24.83489  -9.22059  -8.94138  -8.93813  -0.41288  -0.00424   3.36911   3.53082
   3.53809   4.68710   4.73909   4.78644  99.93440 100.00723 100.01070 100.21362
 100.21371


              NET ATOMIC CHARGES AND DIPOLE CONTRIBUTIONS

  ATOM NO.   TYPE          CHARGE      No. of ELECS.   s-Pop       p-Pop       d-Pop       
    1         Cl          -0.808225        7.8082     1.99868     5.80945     0.00010
    2         Na           0.001111        0.9989     0.99337     0.00552
    3         Na           0.807114        0.1929     0.03698     0.15591
 DIPOLE           X         Y         Z       TOTAL
 POINT-CHG.     5.815    -5.823    -1.476     8.361
 HYBRID        -0.174     0.206     0.158     0.312
 SUM            5.641    -5.617    -1.319     8.069


          ATOMIC ORBITAL ELECTRON POPULATIONS

     Atom    s        px        py        pz      x^2-y^2     xz        z^2       yz        xy
    1 Cl   1.99868   1.92665   1.92658   1.95623   0.00003   0.00002   0.00001   0.00002   0.00002
    2 Na   0.99337   0.00234   0.00261   0.00057
    3 Na   0.03698   0.05677   0.05676   0.04238


                    (SZ)    =    0.500000
                    (S**2)  =    0.750001


          ATOMIC ORBITAL SPIN POPULATIONS

    Atom   Total    s     px     py     pz   x^2-y^2  xz     z^2    yz     xy
         Atomic
    1 Cl  0.0003 -0.000  0.000 -0.000  0.000 -0.000  0.000  0.000  0.000 -0.000
    2 Na  0.9977  0.992  0.002  0.003  0.000
    3 Na  0.0020  0.002  0.000 -0.000  0.000

 **********************
 *                    *
 * JOB ENDED NORMALLY *
 *                    *
 **********************



 TOTAL JOB TIME:             0.08 SECONDS

 == MOPAC DONE ==
