 *******************************************************************************
 ** Site#: 27415        For non-commercial use only    Version 17.143L 64BITS **
 *******************************************************************************
 ** Cite this program as: MOPAC2016, Version: 17.143L, James J. P. Stewart,   **
 ** Stewart Computational Chemistry, web: HTTP://OpenMOPAC.net. Days left: 345**
 *******************************************************************************
 **                                                                           **
 **                                MOPAC2016                                  **
 **                                                                           **
 *******************************************************************************

                              PM6 CALCULATION RESULTS


 *******************************************************************************
 *  CALCULATION DONE:                                Mon Jun 12 13:09:46 2017  *
 *  PM6        - The PM6 Hamiltonian to be used
 *  NOANCI     - DO NOT USE ANALYTICAL C.I. DERIVATIVES
 *  1SCF       - DO 1 SCF AND THEN STOP 
 *  T=         - A TIME OF 172800.0 SECONDS REQUESTED
 *  DUMP=N     - RESTART FILE WRITTEN EVERY  7200.000 SECONDS
 *  RELSCF     - DEFAULT SCF CRITERION MULTIPLIED BY***
 *              (DEFAULT SCFCRT= 0.00010)
 *  AUX        - OUTPUT AUXILIARY INFORMATION
 *  GRADIENTS  - ALL GRADIENTS TO BE PRINTED
 *******************************************************************************
PM6 NOANCI 1SCF GRADIENTS AUX(0,PRECISION=9) RELSCF=0.0001
 Title: ASE job

   ATOM   CHEMICAL          X               Y               Z
  NUMBER   SYMBOL      (ANGSTROMS)     (ANGSTROMS)     (ANGSTROMS)
 
     1      Cl          0.00000000  *   1.50000000  *   2.50000000  *
     2      Na          0.00000000  *   0.00000000  *   2.46032000  *
     3      Na          1.50000000  *   0.00000000  *  -0.46617000  *
 


          CARTESIAN COORDINATES 

    NO.       ATOM         X         Y         Z

     1        Cl        0.0000    1.5000    2.5000
     2        Na        0.0000    0.0000    2.4603
     3        Na        1.5000    0.0000   -0.4662

 General Reference for PM6:
 "Optimization of Parameters for Semiempirical Methods V: Modification of NDDO Approximations
 and Application to 70 Elements", J. J. P. Stewart, J. Mol. Mod., 13, 1173-1213 (2007)
 URL: http://www.springerlink.com/content/ar33482301010477/fulltext.pdf

           Empirical Formula: Cl Na2  =     3 atoms



      MOLECULAR POINT GROUP   :   Cs  


          UHF CALCULATION, NO. OF ALPHA ELECTRONS =    5
                           NO. OF BETA  ELECTRONS =    4
  SCF CRITERION =    0.1000E-07

 -------------------------------------------------------------------------------
PM6 NOANCI 1SCF GRADIENTS AUX(0,PRECISION=9) RELSCF=0.0001
 Title: ASE job



     1SCF WAS SPECIFIED, SO BFGS WAS NOT USED                 
     SCF FIELD WAS ACHIEVED                                   


                              PM6 CALCULATION
                                                       MOPAC2016 (Version: 17.143L)
                                                       Mon Jun 12 13:09:46 2017
                                                       No. of days remaining = 345




          FINAL HEAT OF FORMATION =        -14.00340 KCAL/MOL =     -58.59022 KJ/MOL


          TOTAL ENERGY            =       -266.07263 EV
          ELECTRONIC ENERGY       =       -329.80600 EV  POINT GROUP:     Cs  
          CORE-CORE REPULSION     =         63.73337 EV
          COSMO AREA              =        147.60 SQUARE ANGSTROMS
          COSMO VOLUME            =        152.45 CUBIC ANGSTROMS

          GRADIENT NORM           =        109.31993
          IONIZATION POTENTIAL    =          4.321350 EV
          ALPHA SOMO LUMO (EV)    =         -4.321  0.346
          BETA  SOMO LUMO (EV)    =         -9.785 -0.223
          NO. OF ALPHA ELECTRONS  =          5
          NO. OF BETA  ELECTRONS  =          4
          MOLECULAR WEIGHT        =         81.4325

          MOLECULAR DIMENSIONS (Angstroms)

            Atom       Atom       Distance
           Na     3   Cl     1     3.64683
           Cl     1   Na     2     1.35279
           Cl     1   Na     2     0.00000


          SCF CALCULATIONS        =         11
 
          WALL-CLOCK TIME         =          0.070 SECONDS
          COMPUTATION TIME        =          0.232 SECONDS

          LARGEST ATOMIC GRADIENTS

          Atom     Label                  Cartesian Coordinates        |Gradient|
                                         X          Y          Z

             2      Na                 0.00000    0.00000    2.46032     78.166
             1      Cl                 0.00000    1.50000    2.50000     76.368
             3      Na                 1.50000    0.00000   -0.46637      2.979



       FINAL  POINT  AND  DERIVATIVES

   PARAMETER     ATOM    TYPE            VALUE       GRADIENT
      1          1 Cl    CARTESIAN X     0.000000    -1.809920  KCAL/ANGSTROM
      2          1 Cl    CARTESIAN Y     1.500000   -76.331079  KCAL/ANGSTROM
      3          1 Cl    CARTESIAN Z     2.500000     1.525912  KCAL/ANGSTROM
      4          2 Na    CARTESIAN X     0.000000     2.916247  KCAL/ANGSTROM
      5          2 Na    CARTESIAN Y     0.000000    78.028270  KCAL/ANGSTROM
      6          2 Na    CARTESIAN Z     2.460320    -3.608517  KCAL/ANGSTROM
      7          3 Na    CARTESIAN X     1.500000    -1.097191  KCAL/ANGSTROM
      8          3 Na    CARTESIAN Y     0.000000    -1.813509  KCAL/ANGSTROM
      9          3 Na    CARTESIAN Z    -0.466370     2.092770  KCAL/ANGSTROM




   ATOM   CHEMICAL          X               Y               Z
  NUMBER   SYMBOL      (ANGSTROMS)     (ANGSTROMS)     (ANGSTROMS)
 
     1      Cl          0.00000000  *   1.50000000  *   2.50000000  *
     2      Na          0.00000000  *   0.00000000  *   2.46032000  *
     3      Na          1.50000000  *   0.00000000  *  -0.46637000  *

                             CARTESIAN COORDINATES

   1   Cl        0.000000000     1.500000000     2.500000000
   2   Na        0.000000000     0.000000000     2.460320000
   3   Na        1.500000000     0.000000000    -0.466370000


           Empirical Formula: Cl Na2  =     3 atoms



      MOLECULAR POINT GROUP   :   Cs  


          ALPHA EIGENVALUES  
 -25.67602 -10.15817 -10.08349  -9.79277  -4.32135   0.34603   3.81989   4.00692
   4.32245   4.57106   4.67093   4.73411  98.29839  98.32656  98.35029  98.43460
  98.43627


           BETA EIGENVALUES 
 -25.65701 -10.14145 -10.08066  -9.78545  -0.22325   0.38669   3.97495   4.03943
   4.61429   5.01005   5.09418   5.15876  98.30170  98.33103  98.35208  98.43815
  98.43960


              NET ATOMIC CHARGES AND DIPOLE CONTRIBUTIONS

  ATOM NO.   TYPE          CHARGE      No. of ELECS.   s-Pop       p-Pop       d-Pop       
    1         Cl          -0.771836        7.7718     1.99754     5.77417     0.00012
    2         Na           0.774934        0.2251     0.01563     0.20944
    3         Na          -0.003097        1.0031     0.97908     0.02402
 DIPOLE           X         Y         Z       TOTAL
 POINT-CHG.    -0.022    -5.561    -0.104     5.562
 HYBRID        -0.167     1.276     0.359     1.336
 SUM           -0.189    -4.285     0.255     4.297


          ATOMIC ORBITAL ELECTRON POPULATIONS

     Atom    s        px        py        pz      x^2-y^2     xz        z^2       yz        xy
    1 Cl   1.99754   1.89519   1.98963   1.88935   0.00002   0.00000   0.00001   0.00005   0.00005
    2 Na   0.01563   0.10243   0.00443   0.10258
    3 Na   0.97908   0.00206   0.01492   0.00705


                    (SZ)    =    0.500000
                    (S**2)  =    0.750033


          ATOMIC ORBITAL SPIN POPULATIONS

    Atom   Total    s     px     py     pz   x^2-y^2  xz     z^2    yz     xy
         Atomic
    1 Cl  0.0038  0.000  0.001  0.001  0.002 -0.000  0.000  0.000 -0.000  0.000
    2 Na  0.0154  0.011  0.001  0.000  0.003
    3 Na  0.9808  0.967  0.000  0.013  0.001

 **********************
 *                    *
 * JOB ENDED NORMALLY *
 *                    *
 **********************



 TOTAL JOB TIME:             0.08 SECONDS

 == MOPAC DONE ==
