 *******************************************************************************
 ** Site#: 27415        For non-commercial use only    Version 17.163L 64BITS **
 *******************************************************************************
 ** Cite this program as: MOPAC2016, Version: 17.163L, James J. P. Stewart,   **
 ** Stewart Computational Chemistry, web: HTTP://OpenMOPAC.net. Days left: 355**
 *******************************************************************************
 **                                                                           **
 **                                MOPAC2016                                  **
 **                                                                           **
 *******************************************************************************

                              PM6 CALCULATION RESULTS


 *******************************************************************************
 *  CALCULATION DONE:                                Thu Jun 22 15:36:57 2017  *
 *  PM6        - The PM6 Hamiltonian to be used
 *  NOANCI     - DO NOT USE ANALYTICAL C.I. DERIVATIVES
 *  1SCF       - DO 1 SCF AND THEN STOP 
 *  T=         - A TIME OF 172800.0 SECONDS REQUESTED
 *  DUMP=N     - RESTART FILE WRITTEN EVERY  7200.000 SECONDS
 *  RELSCF     - DEFAULT SCF CRITERION MULTIPLIED BY***
 *              (DEFAULT SCFCRT= 0.00010)
 *  AUX        - OUTPUT AUXILIARY INFORMATION
 *  GRADIENTS  - ALL GRADIENTS TO BE PRINTED
 *******************************************************************************
PM6 NOANCI 1SCF GRADIENTS AUX(0,PRECISION=9) RELSCF=0.0001
 Title: ASE job

   ATOM   CHEMICAL          X               Y               Z
  NUMBER   SYMBOL      (ANGSTROMS)     (ANGSTROMS)     (ANGSTROMS)
 
     1      Cl          0.00000000  *   1.50000000  *   2.50000000  *
     2      Na          0.00000000  *   0.00000000  *  -0.07095000  *
     3      Na          1.50000000  *   0.00000000  *  -1.80535000  *
 


          CARTESIAN COORDINATES 

    NO.       ATOM         X         Y         Z

     1        Cl        0.0000    1.5000    2.5000
     2        Na        0.0000    0.0000   -0.0709
     3        Na        1.5000    0.0000   -1.8054

 General Reference for PM6:
 "Optimization of Parameters for Semiempirical Methods V: Modification of NDDO Approximations
 and Application to 70 Elements", J. J. P. Stewart, J. Mol. Mod., 13, 1173-1213 (2007)
 URL: http://www.springerlink.com/content/ar33482301010477/fulltext.pdf

           Empirical Formula: Cl Na2  =     3 atoms



      MOLECULAR POINT GROUP   :   Cs  


          UHF CALCULATION, NO. OF ALPHA ELECTRONS =    5
                           NO. OF BETA  ELECTRONS =    4
  SCF CRITERION =    0.1000E-07

 -------------------------------------------------------------------------------
PM6 NOANCI 1SCF GRADIENTS AUX(0,PRECISION=9) RELSCF=0.0001
 Title: ASE job



     1SCF WAS SPECIFIED, SO BFGS WAS NOT USED                 
     SCF FIELD WAS ACHIEVED                                   


                              PM6 CALCULATION
                                                       MOPAC2016 (Version: 17.163L)
                                                       Thu Jun 22 15:36:57 2017
                                                       No. of days remaining = 355




          FINAL HEAT OF FORMATION =          5.35900 KCAL/MOL =      22.42207 KJ/MOL


          TOTAL ENERGY            =       -265.23300 EV
          ELECTRONIC ENERGY       =       -314.45069 EV  POINT GROUP:     Cs  
          CORE-CORE REPULSION     =         49.21769 EV
          COSMO AREA              =        152.96 SQUARE ANGSTROMS
          COSMO VOLUME            =        154.37 CUBIC ANGSTROMS

          GRADIENT NORM           =         29.35547
          IONIZATION POTENTIAL    =          5.317924 EV
          ALPHA SOMO LUMO (EV)    =         -5.318 -0.582
          BETA  SOMO LUMO (EV)    =         -8.012 -1.214
          NO. OF ALPHA ELECTRONS  =          5
          NO. OF BETA  ELECTRONS  =          4
          MOLECULAR WEIGHT        =         81.4325

          MOLECULAR DIMENSIONS (Angstroms)

            Atom       Atom       Distance
           Na     3   Cl     1     4.79977
           Na     2   Na     3     1.07664
           Na     2   Cl     1     0.00000


          SCF CALCULATIONS        =         11
 
          WALL-CLOCK TIME         =          0.137 SECONDS
          COMPUTATION TIME        =          0.268 SECONDS

          LARGEST ATOMIC GRADIENTS

          Atom     Label                  Cartesian Coordinates        |Gradient|
                                         X          Y          Z

             1      Cl                 0.00000    1.50000    2.50000     22.232
             2      Na                 0.00000    0.00000   -0.07095     18.774
             3      Na                 1.50000    0.00000   -1.80555      3.875



       FINAL  POINT  AND  DERIVATIVES

   PARAMETER     ATOM    TYPE            VALUE       GRADIENT
      1          1 Cl    CARTESIAN X     0.000000    -0.970223  KCAL/ANGSTROM
      2          1 Cl    CARTESIAN Y     1.500000    10.706479  KCAL/ANGSTROM
      3          1 Cl    CARTESIAN Z     2.500000    19.459994  KCAL/ANGSTROM
      4          2 Na    CARTESIAN X     0.000000    -0.580890  KCAL/ANGSTROM
      5          2 Na    CARTESIAN Y     0.000000    -9.748961  KCAL/ANGSTROM
      6          2 Na    CARTESIAN Z    -0.070950   -16.034016  KCAL/ANGSTROM
      7          3 Na    CARTESIAN X     1.500000     1.543137  KCAL/ANGSTROM
      8          3 Na    CARTESIAN Y     0.000000    -0.958447  KCAL/ANGSTROM
      9          3 Na    CARTESIAN Z    -1.805550    -3.422452  KCAL/ANGSTROM




   ATOM   CHEMICAL          X               Y               Z
  NUMBER   SYMBOL      (ANGSTROMS)     (ANGSTROMS)     (ANGSTROMS)
 
     1      Cl          0.00000000  *   1.50000000  *   2.50000000  *
     2      Na          0.00000000  *   0.00000000  *  -0.07095000  *
     3      Na          1.50000000  *   0.00000000  *  -1.80555000  *

                             CARTESIAN COORDINATES

   1   Cl        0.000000000     1.500000000     2.500000000
   2   Na        0.000000000     0.000000000    -0.070950000
   3   Na        1.500000000     0.000000000    -1.805550000


           Empirical Formula: Cl Na2  =     3 atoms



      MOLECULAR POINT GROUP   :   Cs  


          ALPHA EIGENVALUES  
 -24.10214  -8.35413  -8.01783  -8.01289  -5.31792  -0.58208   2.62934   2.77971
   2.80438   3.25928   3.60212   3.64251 101.52003 101.58013 101.58430 101.76727
 101.76730


           BETA EIGENVALUES 
 -24.09766  -8.34469  -8.01504  -8.01226  -1.21442  -0.47497   2.72484   2.87127
   2.89805   3.79659   4.00399   4.08445 101.52112 101.58121 101.58503 101.76775
 101.76778


              NET ATOMIC CHARGES AND DIPOLE CONTRIBUTIONS

  ATOM NO.   TYPE          CHARGE      No. of ELECS.   s-Pop       p-Pop       d-Pop       
    1         Cl          -0.853562        7.8536     1.99945     5.85405     0.00006
    2         Na           0.781096        0.2189     0.11891     0.09999
    3         Na           0.072466        0.9275     0.90996     0.01758
 DIPOLE           X         Y         Z       TOTAL
 POINT-CHG.     0.522    -6.150   -11.144    12.739
 HYBRID         1.028     0.536    -0.270     1.191
 SUM            1.551    -5.613   -11.414    12.814


          ATOMIC ORBITAL ELECTRON POPULATIONS

     Atom    s        px        py        pz      x^2-y^2     xz        z^2       yz        xy
    1 Cl   1.99945   1.99110   1.96185   1.90110   0.00000   0.00001   0.00002   0.00002   0.00000
    2 Na   0.11891   0.00993   0.02522   0.06484
    3 Na   0.90996   0.01122   0.00547   0.00089


                    (SZ)    =    0.500000
                    (S**2)  =    0.750023


          ATOMIC ORBITAL SPIN POPULATIONS

    Atom   Total    s     px     py     pz   x^2-y^2  xz     z^2    yz     xy
         Atomic
    1 Cl  0.0009 -0.000  0.000  0.000  0.001  0.000  0.000  0.000  0.000  0.000
    2 Na  0.0792  0.069  0.002  0.001  0.008
    3 Na  0.9199  0.904  0.011  0.005 -0.000

 **********************
 *                    *
 * JOB ENDED NORMALLY *
 *                    *
 **********************



 TOTAL JOB TIME:             0.15 SECONDS

 == MOPAC DONE ==
